Formula,Space group number,Band Gap (eV),Debye T (K)
K3O4Sb,13,1.83,389
KO2Sb,15,2.01,354
KO3Sb,148,2.67,451
KO3Sb,201,1.79,387
K3O14Sb5,55,1.20,204
K3O14Sb5,32,1.20,219
KO5Sb3,14,3.11,129
K2O11Sb4,12,1.85,207
K2O3Si,14,3.74,251
K2O5Si2,9,4.33,287
K2O9Si4,176,4.62,420
K2O9Si4,2,4.45,334
K4O3Sn,61,2.11,237
K4O4Sn,2,2.34,271
K2O3Sn,62,2.12,311
K2O3Sn2,166,1.23,249
K2O3Sn2,199,1.31,231
K3PS4,62,2.77,208
KPS3,71,1.70,305
K3S4Sb,217,2.13,255
K3S4Sb,36,2.17,231
KS2Sb,15,1.60,237
K2S7Sb4,15,1.54,96
KS8Sb5,7,1.56,129
K2S5Sn2,15,1.40,129
KS4Sn,14,1.45,116
La5N9Si3,64,1.97,470
La3N11Si6,100,2.97,607
LaN5Si3,19,3.19,594
LaO9P3,20,4.63,485
LaO14P5,14,5.03,510
La10OS14,142,1.94,201
La2O2S,164,3.06,210
LaOS,64,1.52,254
LaOS,57,1.53,261
LaO9Sb3,63,1.49,419
LaO12Sb5,166,3.05,451
La2O7Sn2,227,2.66,412
LaPS4,142,2.43,186
La2S5Si,14,2.34,156
Li7N4P,218,3.47,643
LiN2P,122,3.80,766
Li2N2Si,61,3.85,757
LiN3Si2,36,5.01,823
LiN3Si2,36,5.01,824
LiO3P,13,5.58,440
LiO3P,14,5.56,496
Li7O6Sb,146,3.50,482
Li5O5Sb,12,2.91,527
Li3O4Sb,13,3.06,567
LiO3Sb,52,2.14,440
LiO8Sb3,14,0.97,213
Li8O6Si,185,4.45,479
Li2O3Si,36,5.08,632
Li2O5Si2,60,5.24,522
Li2O5Si2,37,5.15,525
Li2O7Si3,57,5.23,443
Li8O6Sn,148,3.81,463
Li2O3Sn,15,3.13,535
Li3PS4,62,2.95,305
Li7P3S11,2,2.41,278
LiS2Sb,148,1.18,258
LuO9P3,148,5.67,468
LuO9P3,9,5.79,491
LuO9P3,9,5.79,464
LuO14P5,15,5.45,532
Lu2O2S,164,3.09,302
Lu3O12Sb5,217,3.11,339
Lu2O7Sn2,227,2.61,417
LuPS4,14,2.25,191
Mg2N3P,36,3.54,857
Mg2N3P,36,3.54,856
MgN2Si,33,3.97,865
MgO6P2,15,5.53,412
MgO11P4,14,5.11,413
MgO4Sb2,135,2.55,284
MgO6Sb2,136,1.04,334
Mg14O24Si5,55,4.68,440
MgO3Si,63,4.64,812
MgO3Si,148,5.79,704
MgO3Si,88,4.77,622
MgO3Si,61,3.74,522
MgO3Si,60,4.61,531
MgO3Si,14,4.22,518
MgO3Si,15,4.71,559
MgO3Si,62,5.42,706
MgO3Si,15,4.71,596
Mg2O4Sn,227,1.90,619
MgPS3,12,2.80,306
MoO9P3,9,4.21,396
Mo10O31Sb2,28,0.00,427
MoO6Sb2,2,1.40,276
MoO6Sb2,2,1.40,302
Mo4O6Sn,127,0.02,497
Mo5O8Sn,14,0.97,471
MoSSb2,12,0.01,283
N7NaP4,15,4.21,492
N11Na3P6,198,3.82,482
N2NaP,122,4.68,682
N3NaSi2,36,4.18,723
NNaSn,186,0.92,383
NNbO,14,1.55,626
NOTa,14,1.93,533
NOTa,12,2.24,450
N2O5Zr4,108,2.28,475
N11P6Rb3,213,3.92,463
N7P4Rb,62,3.69,485
N4P2Sr,173,4.26,560
N11Pr3Si6,100,2.99,616
N11Si6Sm3,100,3.01,630
N2SiSr,14,2.97,463
N8Si5Sr2,31,3.20,717
N10Si7Sr,7,4.28,787
N8Si6Sr,44,3.21,787
Na5O10P3,15,4.53,453
NaO3P,88,4.74,540
NaO3P,62,5.08,477
NaO3P,14,4.97,523
NaO3P,2,5.12,530
NaO3P,14,4.97,491
NaO3P,14,4.97,519
Na3O3Sb,217,3.09,382
Na3O4Sb,13,2.12,461
NaO3Sb,148,2.70,352
NaO3Sb,62,1.27,495
NaO3Sb,227,1.49,478
Na2O7Sb4,15,3.06,176
NaO8Sb5,2,2.68,150
Na2O3Si,36,3.87,466
Na2O3Si,36,3.87,472
Na2O5Si2,33,4.46,368
Na2O5Si2,14,4.45,339
Na2O5Si2,33,4.46,355
Na2O5Si2,14,4.45,352
Na2O5Si2,88,3.89,364
Na2O5Si2,60,4.43,359
Na2O5Si2,29,4.42,392
Na2O5Si2,14,4.45,323
Na6O19Si8,14,4.53,355
Na2O7Si3,15,4.68,338
Na2O7Si3,14,4.30,330
Na2O9Si4,14,4.47,356
Na4O3Sn,9,1.89,328
Na4O4Sn,2,2.08,372
Na2O3Sn,15,2.51,470
Na4O8Sn3,213,2.38,366
Na3PS4,114,2.28,315
Na3S4Sb,217,1.91,306
NaS2Sb,12,0.45,220
NaS2Sb,15,0.88,231
Na2S5Si2,63,3.53,173
Na4S4Sn,114,2.07,270
Na6S7Sn2,15,2.08,232
Na4S8Sn3,15,1.65,160
Nb9O25P,82,2.11,465
Nb2O15P4,1,3.28,443
NbO4Sb,52,2.35,396
NbO4Sb,33,2.43,356
Nb2O7Sn2,227,0.86,432
Nb2PS10,18,1.37,202
NbP2S8,118,1.44,229
NbP2S8,64,1.28,210
NdO9P3,20,5.48,452
NdO14P5,53,5.39,460
NdO14P5,14,5.39,460
Nd10OS14,142,1.84,217
Nd2O2S,164,2.86,270
Nd3O7Sb,63,2.74,386
NdO4Sb,14,2.41,431
Nd3O12Sb5,217,3.15,338
Nd2O7Sn2,227,2.66,448
NdPS4,142,2.25,307
Nd6S17Si4,2,2.52,301
O9P3Pr,20,5.48,456
O14P5Pr,14,5.39,457
O3PRb,63,4.52,417
O3PRb,14,4.85,414
O3PRb,14,4.85,349
O3PRb,62,4.76,395
O9P3Sc,9,5.06,514
O9P3Sc,9,5.06,489
O9P3Sc,220,5.15,492
O14P5Sm,14,5.38,424
O13P4Sr3,2,5.21,395
O6P2Sr,4,5.81,336
O6P2Sr,14,5.42,370
O6P2Sr,14,5.42,335
O17P6Sr2,4,5.33,432
OP2Sr4,139,1.21,253
O14P5Tb,14,5.36,511
O9P3Ti,9,0.03,443
O14P5Tm,15,5.23,442
O9P3V,9,2.26,482
O9P3V,9,2.26,464
O19P2W5,14,0.01,374
O13P4Y2,20,5.64,530
O9P3Y,14,5.80,436
O9P3Y,148,5.69,466
O9P3Y,11,5.76,483
O9P3Y,9,5.62,495
O14P5Y,62,5.48,517
O14P5Y,15,5.25,513
O9P3Yb,14,5.77,350
O9P3Yb,148,5.84,366
O12P4Zr,29,4.15,442
O2Pr2S,164,2.86,275
OPr10S14,142,1.84,227
O4PrSb,14,2.20,394
O4PrSb,14,2.20,434
O12Pr3Sb5,217,3.17,340
O7Pr3Sb,63,2.72,391
O7Pr2Sn2,227,2.64,449
O13Rb2Sb8,11,2.33,161
O11Rb2Sb4,12,1.82,196
O14Rb3Sb5,55,1.17,192
O2RbSb,15,2.25,325
O23Rb6Si10,38,4.31,360
O23Rb6Si10,38,4.31,361
O23Rb6Si10,189,4.02,366
O5Rb2Si2,15,4.04,210
O17Rb10Si6,61,3.47,274
O3Rb2Si,14,3.43,181
O17Rb14Si10,14,1.49,261
O3Rb2Sn2,166,1.23,226
O4Rb4Sn,2,2.16,249
O2Rb2Sn,19,2.23,196
O2SSc2,194,2.01,618
O2SSm2,164,2.90,312
OS2Sm2,14,2.41,334
OS14Sm10,142,1.85,259
O2STb2,164,2.98,302
OS2Tb2,14,2.51,275
O2STm2,164,3.10,314
OS2Tm2,14,2.69,346
O2SY2,164,2.99,399
OS2Y2,14,2.55,304
OS2Yb2,14,0.70,366
OSZr,198,2.42,435
OSZr,129,0.79,481
O4SbSm,14,2.47,417
O3SbSm3,12,0.00,315
O12Sb5Sm3,217,3.13,307
O7Sb2Sr2,74,1.36,313
O6Sb2Sr,162,2.78,328
OSb2Sr4,139,0.98,275
O7SbTb3,63,2.96,392
O7SbTb3,20,2.76,387
O12Sb5Tm3,217,3.11,293
O7SbY3,63,2.80,486
O7Sc2Si2,227,3.76,645
O3SiSr,15,4.63,362
O3SiSr,14,4.60,383
O3SiSr,221,2.38,709
O3SiSr,2,4.38,380
O5Si2Sr,64,4.06,498
OSiSr3,62,0.43,348
O7Sm2Sn2,227,2.70,385
O4SnSr2,138,2.65,402
O4SnSr2,139,2.57,444
O4SnSr2,64,2.70,411
O7Sn2Sr3,63,2.16,321
O3SnSr,140,1.56,523
O3SnSr,62,1.74,499
O3SnSr,221,0.97,568
O3SnSr,74,1.61,517
O7SnTa2,15,1.48,373
O6SnTa2,9,2.29,353
O7Sn2Ta2,227,1.49,396
O7Sn2Tb2,227,2.72,472
O4Sn2Ti,135,1.08,378
O7Sn2Tm2,227,2.65,351
O23Sn5W8,176,1.71,358
O22Sn5W8,176,1.72,358
O4SnW,52,0.92,422
O4SnW,198,3.84,390
O5Sn2W,14,2.49,314
O6Sn3W,15,2.20,280
O7Sn2Y2,227,2.75,479
PPrS4,142,2.28,313
PRbS3,71,1.83,256
PRb3S4,62,2.74,193
PS4Sc,2,1.94,182
PS4Sm,142,2.21,251
PS3Sr,14,3.11,290
PS6Ta,142,0.87,235
PS4Tb,142,2.17,274
P2S6Ti,43,1.39,223
P4S13V2,2,0.15,389
PS10V2,14,1.11,337
PS4Y,142,2.13,212
P2S6Zr,84,1.53,178
Pr8S15Sb2,110,1.89,239
Pr6S17Si4,2,2.54,317
Rb3S4Sb,62,2.02,210
Rb2S7Sb4,14,1.22,111
Rb2S7Sb4,2,1.83,99
Rb2S3Si,12,2.82,166
Rb4S4Sn,218,2.41,243
Rb6S7Sn2,19,2.12,251
RbS4Sn,60,1.33,266
RbS4Sn,14,1.46,132
S17Sb6Sr6,19,1.74,307
S9Sb4Sr3,33,1.04,256
S17Si4Sm6,2,2.48,266
S12Si3Tb4,14,2.37,269
S5Sm2Sn,55,0.00,265
S4SnSr2,40,2.47,284
S5SnTb2,55,0.13,283
S3SnZr,62,0.99,226
AlB3CaO7,67,5.38,732
Al2B2Cs2O7,14,4.24,218
Al2B2K2O7,150,4.59,393
AlB8K3O15,14,5.00,635
AlBLi2O4,14,4.86,622
AlB2LiO5,15,5.41,530
AlB5Li2O10,14,5.63,698
AlBMgO4,62,6.01,696
Al2B2O7Sr,155,4.65,523
AlBaCaF7,13,7.00,310
AlBaF6Li,14,7.70,243
AlBaF6Na,33,6.98,172
AlBa2InO5,194,2.02,351
AlBaLaO4,19,4.43,388
AlBa2NdO5,4,3.69,382
Al2BaO7Sb2,155,3.41,388
Al2Ba7O19Sc6,194,2.48,388
Al2BaO8Si2,14,4.82,442
Al3C2O5Sc3,194,0.41,749
AlCOSc,166,0.38,828
Al2CaF9K,20,7.14,153
AlCaF6Li,163,7.64,394
AlCaF6Na,150,7.11,308
AlCaF6Na,14,6.91,211
Al2Ca3F14Na2,199,7.14,249
AlCaLiN2,14,2.78,642
Al2Ca5N8Si2,60,2.79,676
Al6Ca4O12S,217,3.73,709
Al12CaO27Si4,147,5.24,723
Al2CaO8Si2,2,4.99,538
Al2Ca2O7Si,113,4.28,618
AlCaO5Ta,14,3.93,478
AlCaO5Ta,15,3.90,483
AlCe3MgS7,173,0.04,314
Al2ClF25Sr10,227,6.42,257
Al2Cl2O5Sr3,19,4.22,362
Al3Cs2F12Li,166,7.09,195
Al3Cs2F12Na,166,6.92,183
AlCs2F6Na,166,6.70,179
AlCs3Ge2O7,15,3.65,178
Al3CsO20P6,41,5.67,511
AlCs2O10P3,14,4.91,347
Al2Cs2O7Sb2,164,3.64,311
AlF6K2Li,225,7.44,348
AlF6K2Li,166,7.22,311
Al3F12K2Na,11,6.83,142
AlF6K2Na,225,6.86,290
Al2F2K2O3,12,4.02,425
AlF6LiNa2,14,7.21,374
Al2F12Li3Na3,230,7.09,240
AlF6LiSr,14,7.18,376
AlF6LiSr,163,7.32,385
AlF6LiYb,163,7.69,357
AlF7MgNa2,46,6.67,418
AlF7MgNa2,74,6.66,398
Al6F21NaRb2,5,7.00,245
Al3F12NaRb2,11,7.15,144
Al5F26Na3Sr4,86,6.92,300
Al6F34Na2Sr7,12,6.95,302
AlF6NaSr,33,6.98,294
AlFO4Sr3,140,4.04,442
Al2Gd2O7Sr,139,2.63,554
AlGe2LiO6,14,3.38,373
AlGeO5Y,55,3.81,586
AlKLi4O4,14,3.97,576
AlKO12P4,12,5.18,433
Al2K2O7Sb2,164,3.50,370
AlKO8Si3,2,4.93,400
Al4La17N33Si9,216,1.88,572
Al15La3O37Ti5,9,1.40,714
AlLa3S7V,173,0.08,310
AlLiO12P4,60,5.74,432
AlLiO6Si2,15,5.37,471
AlLiO6Si2,14,5.30,483
AlLiO10Si4,13,5.32,375
Al4Mg2O18Si5,66,4.82,526
AlMoO7V,62,2.33,521
AlNNd2O3,107,1.06,431
AlNO3Pr2,107,1.61,418
AlNO3Sm2,107,1.81,456
AlN7Si4Sr,33,3.58,735
Al2Na3Nb34O64,148,0.02,698
AlNa3O23P8,213,5.24,443
AlNaO6Si2,15,5.23,444
AlNaO8Si3,2,0.35,359
Al5NaO12Ti2,55,2.72,567
Al2Nb35O70Rb4,147,0.01,770
AlNbO8Sr4,14,2.95,303
Al3O20P6Rb,20,5.44,513
Al2O7Rb2Sb2,164,3.59,347
AlO4RbSi,33,4.38,381
Al6O12SSr4,217,3.34,601
Al3O12Sc2Y3,230,4.27,695
Al4O15Sr6Y2,5,3.99,464
B4BaBi2O10,14,3.35,423
BBaBiS4,12,1.93,170
B6Ba2CaO12,148,4.96,638
BBa2ClN2,214,2.75,340
B5Ba2ClO9,34,5.24,547
BBa2Cl17Zr6,87,1.09,359
B3BaCsO6,150,4.04,375
B5Ba8FN10,2,2.22,279
BBaF3O,62,5.89,382
B4Ba5F2O10,15,4.51,239
B2BaGa2O7,63,3.98,388
B9Ba3InO18,176,4.72,645
B5BaKO9,14,4.87,584
B9BaLiO15,161,5.67,749
B9BaLiO15,167,5.67,748
B5Ba2LiO10,11,4.95,524
B3BaLiS6,9,2.86,291
BBaLiS3,14,2.15,169
B9Ba3LuO18,176,5.25,567
B6Ba2MgO12,148,5.21,623
B3Ba4N6Na,229,2.04,366
B2Ba4N4O,64,2.80,322
B9BaNaO15,161,5.50,729
B5BaNaO9,14,5.01,586
B9Ba3O18Sc,176,5.28,553
B4Ba2O11Sc2,15,3.35,442
B6Ba3O16Si2,2,5.40,577
B9Ba3O18Y,176,5.19,553
B6Ba3O15Y2,206,4.52,447
BBaS4Sb,62,2.34,201
B4Bi2O10Sr,2,3.65,435
B3Br5C6Ce9,59,0.00,339
B5BrCa2O9,34,5.20,731
B5BrEu2O9,34,0.88,538
B6BrK3O10,160,5.21,699
BBr20K8Zr6,225,0.08,344
B2C4Ca9Cl8,63,1.37,405
BC4Ca5Cl3,63,0.73,537
BCa2ClN2,62,3.33,447
BCa2FN2,62,2.93,531
B6Ca10Ge16O51,32,3.10,478
B10CaLa2O19,5,4.54,669
B3Ca4LiN6,229,2.19,745
B2CaMgO5,14,5.31,584
B5CaNa3O10,2,4.43,580
B2Ca2O7Si,113,5.74,655
B2CeClO4,2,0.20,399
B2Ce6Ge9O30,14,0.04,569
BCl20Cs3Zr7,167,1.20,333
B2Cl2Er2O5,55,5.08,208
B5ClEu2O9,34,0.87,552
B2ClLaO4,2,4.15,378
B14Cl2Li10O25,196,6.43,948
BClMg2N2,61,3.67,537
B7ClMg3O13,219,6.01,861
B7ClMg3O13,29,5.93,835
BClN2Sr2,62,2.75,276
B2ClO4Pr,2,5.07,389
B5ClO9Sr2,34,5.34,646
B3CsGeO7,33,4.60,329
B6CsLiO10,122,5.08,618
B5Cs2Li3O10,20,4.53,523
B7Cs3Li4O14,152,4.52,545
BCsLi2S3,62,3.09,176
B10Cs2Na2O17,15,4.71,638
B2CsNbO6,31,3.30,261
B2CsO6Ta,31,3.40,300
B6FLiO9,33,6.46,828
BFN2Sr2,62,2.57,323
B4GaNa3O9,11,4.37,555
B2Ga2O7Sr,63,3.97,465
B5GdMgO10,14,3.02,567
BGe2KO6,19,3.50,265
B4GeO9Rb2,4,4.08,354
B6Ge3O17Rb4,9,3.86,319
B2InLi3O6,14,3.43,512
B4KLiO7,19,5.08,635
BKN2Na2,139,1.82,615
B9K2NaO15,14,5.30,694
BKO6Si2,19,5.32,385
B5KO9Sr,14,5.14,665
B2KO6Ta,31,3.61,353
B2K3O12Ta3,189,2.67,431
B5LaMgO10,14,4.74,609
BLaMoO6,14,3.55,309
BLa3N2O3,62,1.21,332
BLa6N3O6,63,1.10,298
B3LiN6Sr4,229,2.07,546
B4LiNaO7,43,5.80,695
B4LiO7Rb,19,4.87,571
B11Li6O22Rb5,5,4.36,617
B7Li5O14Rb2,40,4.59,703
BLiO6Si2,4,5.59,354
B9LiO15Sr,161,5.65,807
B12Li2O23Sr4,14,4.70,718
B3LiS6Sr,9,2.91,392
BLiS3Sr,62,2.39,257
B5MgNa3O10,61,4.70,589
B2MgO5Sr,14,4.70,538
B3N6NaSr4,229,1.97,505
BNOSr,14,3.40,526
B5Na3O8S,14,3.87,794
B2NaO5Sc,14,4.92,493
BNaO8Si3,2,5.28,347
B5NaO9Sr,14,5.23,682
B5Na3O10Sr,2,4.56,652
B2NbO6Rb,7,3.38,283
B4O11Sc2Sr2,2,4.34,515
Ba3BiCl3O3,62,3.93,206
BaBiClO2,63,3.18,328
Ba2BiDyO6,225,1.72,410
Ba2BiInS5,36,1.45,294
Ba4Bi3KO,140,0.73,144
BaBi2LaS6,14,0.67,76
Ba3BiNaO6,167,1.93,354
Ba4Bi3NaO12,229,0.27,316
BaBi2Nb2O9,36,2.22,327
Ba2BiNdO6,12,1.67,373
Ba2BiO6Sb,225,1.64,353
Ba2BiO6Sb,12,1.70,319
Ba2BiO6Sb,148,1.78,340
Ba2BiO6Ta,225,2.68,406
Ba2BiO6Ta,12,2.54,350
Ba2BiO6Ta,148,2.59,383
BaBi2O9Ta2,139,1.92,403
Ba2BiO6Tb,12,1.72,379
Ba2BiO6Y,225,1.82,384
Ba2BrInO3,129,1.83,324
Ba3Br2In2O5,139,1.29,291
BaCaF7Ga,13,5.85,325
BaCaGa4O8,44,3.06,527
BaCa2N12P6,205,4.07,590
Ba3Ca2N6Si2,15,1.55,416
BaCaO12P4,14,5.52,467
Ba3CaO9Sb2,15,3.16,317
BaCa2O9Si3,2,4.57,469
Ba8Ce3O24Sb4,139,1.88,334
Ba2ClInO3,129,1.91,338
Ba3Cl2In2O5,139,1.43,309
BaClO2Sb,63,2.88,323
BaCs4O18P6,159,5.11,424
Ba2DyO6Sb,225,3.47,437
Ba3Dy2P4S16,60,2.37,353
Ba6Er2Ga4O15,13,3.53,340
Ba2ErO6Sb,225,3.38,440
Ba3Er2P4S16,60,2.38,342
Ba2EuO6Sb,225,0.00,425
Ba2FInO3,129,2.05,356
Ba3F2In2O5,139,1.59,335
Ba2F2S3Sn,62,2.31,216
Ba3Ga2Ge4O14,150,2.25,413
BaGaLaO4,19,3.95,374
Ba4GaN3O,61,1.18,318
BaGaNdO4,19,3.73,414
Ba2GdO6Sb,225,0.12,440
Ba3Gd2P4S16,60,1.45,327
BaGe3K4O9,5,3.23,269
BaGe8K2O18,165,3.00,425
Ba3GeMgN4,52,1.29,347
BaGe3O9Sn,188,2.77,423
Ba2HoO6Sb,225,3.42,438
Ba3Ho2P4S16,60,2.38,351
BaIn2La2O7,136,2.46,370
Ba2InNbO6,225,3.35,422
Ba2KO15P5,7,5.14,464
Ba4KOSb3,140,1.02,181
BaK4O9Si3,40,4.23,361
BaKPS4,62,2.39,156
Ba2LaO6Sb,148,3.96,360
Ba2LaO6Sb,14,3.84,322
Ba2Li3O21P7,14,5.45,466
Ba4LiO12Sb3,229,1.45,268
Ba2LuO6Sb,225,0.02,425
Ba4MgN6Si2,70,1.59,364
Ba3MgO9Sb2,194,2.65,286
Ba2N23Nd7Si11,65,0.62,651
Ba3N8O6P6,147,4.55,568
Ba3N2O12Si6,147,4.63,304
Ba3N4O9Si6,143,4.37,405
BaN2O2Si2,60,3.01,423
BaN8OSi6,44,4.23,862
BaN12P6Sr2,205,4.15,567
BaN7Si4Y,186,2.73,660
BaNaO9P3,19,5.31,377
Ba4NaO12Sb3,229,1.52,247
BaNa2O6Si2,4,4.17,339
Ba6Nb14O47Si4,185,0.04,678
Ba2NdO6Sb,225,3.66,440
Ba2NdO6Sb,148,3.73,424
Ba2Nd2O13Si4,2,5.05,423
Ba2O6PrSb,225,3.68,435
Ba2O6PrSb,148,3.77,419
Ba4ORbSb3,140,0.94,187
Ba2O6SbSm,225,3.61,427
Ba3O9Sb2Sr,2,3.14,291
Ba2O6SbTb,225,3.51,440
Ba2O6SbY,225,3.54,411
BaO9Si3Sn,188,3.72,477
BaO9Si3Ti,188,3.06,422
BaO10Si3Y2,11,4.81,476
Ba3P4S16Tb2,60,2.37,336
Bi2BrDyO4,123,1.33,297
Bi2BrErO4,123,1.35,280
Bi2BrGdO4,123,0.99,290
Bi2BrHoO4,123,1.37,296
Bi6BrKO9,230,2.33,241
Bi2BrLuO4,123,1.40,267
Bi2BrNdO4,123,1.22,303
Bi2BrO4Pr,123,1.23,312
Bi2BrO4Sm,123,1.28,322
BiBrO2Sr,63,3.16,356
Bi4Br7O2Ta2,128,0.06,140
Bi2BrO4Tb,123,1.29,299
Bi2BrO4Tm,123,1.35,295
Bi2BrO4Y,123,1.34,269
BiCaClO2,11,3.62,362
BiCa2Na3O6,70,1.75,471
Bi2CaO9Ta2,36,3.21,381
BiCl6CsK2,15,3.92,77
Bi2ClDyO4,123,1.36,306
Bi2ClErO4,123,1.85,290
Bi2ClGdO4,123,0.85,301
Bi2ClHoO4,123,1.37,306
Bi6ClKO9,230,2.35,243
Bi2ClLuO4,123,1.46,280
Bi2ClNdO4,123,1.18,312
Bi2ClO4Pr,123,1.12,321
Bi2ClO4Sm,123,1.68,329
BiClO2Sr,63,3.30,370
BiCl3O3Sr3,62,4.00,262
Bi4ClO8Ta,123,1.01,232
Bi2ClO4Tb,123,1.34,309
Bi2ClO4Tm,123,1.41,304
Bi2ClO4Y,123,1.31,282
BiCs2F6K,225,4.95,194
BiCs2F6Na,225,5.02,222
BiCs2F6Rb,225,4.77,186
BiCsGeS4,14,2.01,140
BiCsNb2O7,26,2.48,367
BiCsS4Si,14,2.59,145
BiF6KRb2,225,4.80,203
BiF6NaRb2,225,4.92,233
BiGeKS4,14,2.00,113
BiGeRbS4,14,1.98,128
BiKLi6O6,166,1.42,574
BiKO12P4,14,4.89,424
BiKO8W2,15,2.71,430
BiKP2S6,4,2.22,235
BiKP2S7,14,2.44,263
BiK3P2S8,19,2.09,256
BiK9P4S16,18,2.06,359
BiKS4Si,14,2.05,122
Bi4LiNb3O14,15,2.74,285
BiLuO6Sr2,14,1.91,395
BiMg2O6P,63,3.78,322
BiMg2O6V,63,3.36,389
BiNaO12P4,14,4.63,430
Bi2NaO11Sb3,201,2.41,273
BiNaO6Sr3,167,1.73,428
Bi3NaO10V2,1,2.70,219
Bi2Nb2O9Sr,36,2.46,403
BiNdO6Sr2,14,1.70,369
Bi2O12Sm2Ti3,139,1.90,446
Bi2O9SrTa2,36,1.58,393
Bi2O9SrTa2,41,2.30,390
Bi2O9SrTa2,139,2.00,427
BiRbS4Si,14,2.08,130
BrCe3S8Si2,15,0.12,215
Br6Cs2InNa,225,1.89,137
BrF3RbSb,2,3.75,308
Br2LaS2Sb,14,2.10,161
BrLa3S8Si2,15,2.63,175
BrLi6PS5,216,2.13,415
BrNd3S8Si2,15,2.73,239
BrPr3S8Si2,15,2.63,247
BrS8Si2Sm3,15,2.61,286
CHo2N6Si4,14,3.21,640
CN6Si4Y2,14,3.10,717
Ca2Cl2O3Si,79,5.10,452
CaF6GaLi,163,6.40,439
Ca3Ga2Ge3O12,230,2.98,532
CaGaLaO4,62,3.46,447
CaGaLiN2,14,2.13,527
CaGeO5Zr,2,0.59,501
Ca2InNbO6,14,3.43,475
CaKO9P3,188,5.04,433
Ca4K2O21Si8,2,4.58,549
Ca3K2O10Si3,15,4.75,446
Ca3LiN5Si2,15,2.44,626
Ca3Li4N6Si2,12,2.29,802
Ca4Li2O13Si4,2,4.46,463
Ca2Li2O13Si5,2,4.80,513
CaMgO6Si2,15,4.97,511
Ca7N9NbSi2,11,1.99,586
CaN2O2Si2,4,4.37,628
CaNa2O12P4,125,5.37,468
CaNa4O18P6,15,5.20,461
Ca3Na2O10Si3,15,4.38,414
Ca3Na2O16Si6,2,4.30,459
CaNb2O11P2,15,2.47,498
CaO10S6Sb10,15,1.75,300
Ca2O6SiTi,225,2.36,739
Ca2O12Si4Zr,11,4.85,399
Ce3ClS8Si2,15,0.00,234
CeKO12P4,4,0.23,369
CeKO12P4,14,0.16,335
CeK2O15Si6,15,2.22,468
CeK3P2S8,14,0.17,146
CeKS4Si,11,0.00,179
CeKS4Si,4,0.13,145
CeNaO12P4,14,0.18,349
ClCsF3Sb,121,3.66,275
Cl6Cs2InLi,166,3.23,136
Cl5Dy3O6Si2,12,4.77,225
Cl2Eu2O3Si,87,0.64,277
ClF3KSb,61,4.43,259
Cl3F10K3Sn5,63,3.29,152
Cl3F2Rb2Sb,2,3.06,225
Cl5Gd3O6Si2,12,2.53,271
Cl9InLiNb3,2,0.95,282
Cl6InLiRb2,225,2.83,248
Cl6InNaRb2,225,3.05,203
ClLa3S8Si2,15,2.61,187
ClLi6PS5,216,2.14,401
Cl12NNbP2,15,2.43,209
Cl12NP2Ta,15,2.87,171
Cl7NPTa,14,3.17,152
Cl11NP2Zr,64,2.86,247
Cl14NSb2V,14,1.19,303
Cl14N2Si4Ti,19,2.52,316
Cl5NbP2S2,14,1.69,156
Cl5NbP4S10,2,1.20,179
ClNd3S6Si,62,2.56,309
Cl5O6Si2Sm3,12,4.61,255
Cl2O3SiSr2,87,5.12,297
Cl5O6Si2Tb3,12,4.69,274
Cl5O6Si2Y3,12,4.56,312
Cl5P2S2Ta,14,2.34,194
ClPr3S8Si2,15,2.74,275
ClS6SiSm3,62,2.56,353
CsErO12P4,14,5.81,373
CsErS4Si,19,3.03,157
CsEuO12P4,14,0.01,423
Cs2F6GaLi,164,6.13,260
Cs2F6GaNa,166,5.97,223
Cs2F6InK,225,5.46,209
Cs2F6InNa,225,5.30,235
CsF6NaSn,60,5.14,140
Cs2F10OSb2,13,3.87,144
CsF7Rb2Si,127,5.73,184
CsGaK4O4,61,2.42,237
Cs2GaLi3O4,72,3.66,323
Cs2GaO10P3,14,4.35,337
CsGa2O16P5,7,4.64,464
CsGdO12P4,14,3.43,323
CsGdS4Si,19,1.72,157
Cs2GeO13P4,2,4.12,346
Cs2Ge3O9Sn,176,2.61,323
Cs2Ge3O9Ti,176,2.95,281
CsGeS4Sm,19,2.46,195
CsGeS5Ta,2,0.99,203
Cs2InNa3O4,14,2.07,275
CsInO12P4,205,4.32,333
CsLaO12P4,4,5.05,351
CsLiO6P2,43,5.62,302
Cs4Li2O15Si6,11,4.41,287
Cs2MgO12Si5,61,4.58,311
Cs3Mo6O38P10,2,0.97,497
CsNaO5Si2,33,4.46,250
Cs4Nb2O23Si8,2,3.73,332
CsNb2PS10,7,1.51,159
CsNdO12P4,4,5.30,388
CsNdO12P4,14,5.49,361
Cs3NdP2S8,14,2.18,181
CsO12P4Pr,4,5.30,377
CsO12P4Pr,14,5.47,348
CsO12P4Tb,4,5.31,364
CsO16P5V2,7,0.01,419
CsO12P4Y,14,5.52,340
CsO7SbSi2,33,3.23,261
Cs2O9Si3Sn,19,3.79,304
Cs2O15Si6Ti,15,3.29,400
Cs2O15Si6Ti,9,3.51,408
Cs2O9Si3Zr,176,4.79,310
Cs2O15Si6Zr,12,4.95,337
Cs3P2S8Sm,14,2.19,254
CsPS6Ta,14,1.79,208
CsP2S8Ti,9,1.37,181
CsS4SiSm,19,2.84,155
Dy3FO10Si3,14,5.11,382
DyKO12P4,15,5.28,441
DyKO12P4,14,5.47,415
DyLiO12P4,15,5.93,460
DyNa3O15Si6,64,4.51,480
DyO6SbSr2,14,3.66,412
Er3FO10Si3,14,5.10,376
ErKO12P4,4,5.29,417
ErKO12P4,20,5.37,377
ErKO12P4,14,5.49,385
ErKP2S7,14,2.66,139
ErLiO12P4,15,5.92,429
ErNaO12P4,14,5.54,397
ErNaP2S6,2,2.54,128
Er3P4Rb3S16,14,2.28,208
EuGeKS4,4,0.01,156
EuGeLi2S4,121,0.20,251
EuKO12P4,4,0.00,465
EuKPS4,62,0.01,180
EuKS4Si,4,0.27,144
EuLiO12P4,15,4.08,449
EuLiPS4,142,0.00,214
EuMg3N4Si,88,0.16,623
EuN2O2Si2,1,0.31,436
EuN7Si4Y,186,0.55,679
EuNaO12P4,14,4.04,422
EuRbS4Si,19,0.46,156
F6GaKRb2,225,5.89,276
F6GaLiRb2,166,6.11,317
FGaO4Sr3,140,3.68,426
FGd13Ge6O31,146,2.96,278
FHo3O10Si3,14,5.11,380
F6InK2Na,225,5.24,299
F12In2Li3Na3,230,5.29,296
F7InMgNa2,62,4.97,310
F6InNaRb2,225,5.34,288
F6KNaSi,62,6.98,223
F6KNaSn,33,5.17,232
F2K2O5P2,15,5.04,475
F14K4Sb2Sn,2,4.08,280
F7KSnZr,53,4.01,230
F3La5O12Sb4,130,3.31,218
FLaO3Si,190,4.60,312
F9MoOSb,14,3.68,227
F6NaRbSn,60,5.10,155
FO5Pr2Sb,4,3.51,358
F10ORb2Sb2,14,3.77,117
FO10Si3Y3,14,5.14,464
F2S3SnSr2,62,2.08,277
Ga3Gd3O12Sc2,230,0.49,544
GaGe5La3O16,2,3.27,530
Ga2GeLi2S6,43,2.13,140
GaGeNSr2,11,0.48,389
GaGe2NaO6,15,2.64,324
GaK2Li3O4,14,3.42,441
GaKNa2O3,62,2.51,488
GaKNa4O4,61,2.60,411
GaKO12P4,12,4.55,435
GaLaOS2,57,1.93,284
GaLa3OS5,62,1.20,167
Ga5La3O14Sn,150,3.31,529
GaLiN2Sr,12,1.84,442
GaLi3Na2O4,58,3.24,582
GaLiO6Si2,15,4.27,441
GaLiO6Si2,14,4.31,429
GaLiO8W2,13,3.45,462
GaMgMo4O7,74,0.00,552
GaMo4S8Si,216,0.02,520
GaN3OSr4,61,1.13,391
Ga4NaNdS8,70,2.10,149
GaNa3O23P8,213,5.00,457
GaNaO6Si2,15,4.17,421
Ga2Nd4O4S5,61,3.00,238
Ga3O20P6Rb,20,4.79,485
Ga2O16P5Rb,7,4.65,467
GaO6SbSr2,225,0.73,487
GaO6SbSr2,87,1.29,465
GaO6Sr2Ta,87,4.04,516
GdKO12P4,15,3.22,362
GdKO12P4,4,3.12,377
GdKO12P4,14,3.49,334
Gd3K3P4S16,15,1.50,224
GdLiO12P4,15,3.47,391
GdNaO12P4,14,3.36,356
GdO12P4Rb,14,3.47,327
Ge2InKO6,15,2.31,317
GeKLaS4,4,2.30,122
GeKNO,29,2.68,366
GeKNaO3,33,3.03,350
Ge2K3Nb3O13,189,2.32,456
GeKNdS4,4,2.49,138
GeK2O15Si6,9,4.37,494
Ge3K2O9Sn,165,2.63,382
Ge3KO9Ta,188,3.51,318
Ge3K2O9Ti,165,2.85,306
GeKS4Tb,4,2.45,172
GeKS4Y,4,2.42,208
Ge2Li4N6Sr3,12,2.05,614
Ge4LiNaO9,29,2.66,338
Ge2LiO6V,14,2.03,398
GeMgN4Sr3,52,1.41,438
Ge2NaO6Sc,15,3.55,357
Ge2NaO6V,15,2.05,383
Ge3NbO9Rb,188,3.17,242
Ge4O17Rb14Si6,14,1.34,311
Ge3O9Rb2Sn,165,2.38,345
Ge3O9RbTa,188,3.47,313
Ge3O9Rb2Ti,165,3.07,275
GeRbS5Ta,2,0.92,217
HoKO12P4,15,5.33,440
HoK3O9Si3,31,3.76,337
HoLiO12P4,15,5.93,457
HoO12P4Rb,14,5.77,409
HoO6SbSr2,14,3.64,415
In2KNa9O8,62,1.71,420
InK2Na3O4,58,1.92,373
InK3Na2O4,14,1.91,282
In3K5O21Si7,33,3.84,409
In2K4O21Si8,14,3.80,487
InKP2S7,5,2.04,260
InK2P2S7,12,1.87,219
InLiMo2O8,15,2.83,434
InLiO6Si2,15,3.85,392
InNa3O4Rb2,58,2.16,349
InNaO6Si2,15,3.48,397
InNaO8W2,13,3.48,398
InNbO6Sr2,14,3.39,449
InO6SbSr2,14,1.75,390
KLaO12P4,36,4.35,349
KLaO12P4,4,4.89,377
K3LaP2S8,14,2.45,135
K2LaP2S7,14,2.26,107
KLaP2S6,14,2.67,103
KLaS4Si,11,2.69,146
KLaS4Si,4,2.94,117