Formula,Space group number,Band Gap (eV),Debye T (K)
KLiO6P2,14,5.48,366
KLiO6P2,15,5.29,367
KLiO5Si2,4,4.71,431
K3LuO9Si3,31,3.48,328
KMgO9P3,188,4.95,415
KMoO5Sb,14,3.37,357
KMo2O8Sb,2,2.54,471
K2Na3O10P3,15,4.39,424
KNa2O9P3,2,5.05,426
K4Na2O15Si6,15,4.33,383
KNaO5Si2,14,4.28,349
K4Nb2O23Si8,2,3.79,379
KNbO7Si2,100,3.43,383
KNb2PS10,29,1.50,180
K2NdO15P5,9,5.25,418
KNdO12P4,15,5.36,399
KNdO12P4,4,5.34,413
K3NdO15Si6,55,4.14,397
K3NdO17Si7,147,4.71,450
K3NdP2S8,14,2.44,161
K2NdP2S7,14,2.35,131
K3Nd3P4S16,15,2.42,251
KO12P4Pr,15,5.35,390
KO12P4Sm,15,5.30,470
K2O12P4Sr,82,5.60,483
KO12P4Tb,4,5.32,391
KO24P7V4,2,1.84,498
KO12P4Y,15,5.35,383
KO12P4Y,4,5.33,396
KO12P4Yb,14,0.04,448
K3O9S3Sb7,173,1.83,164
K6OS6Si2,14,3.15,305
K2O9Si3Sn,146,3.86,434
K2O9Si3Sn,176,3.83,462
K4O9Si3Sr,40,4.16,387
K2O9Si3Ti,146,3.37,404
K2O9Si3Ti,176,3.19,426
K2O15Si6Ti,9,3.44,432
K2O15Si6Ti,2,3.25,439
K2O15Si6Ti,4,3.44,435
K2O9Si3Zr,176,4.81,388
KP2S6Sb,4,2.27,236
K2P2S7Sm,5,2.22,237
KP2S7Sm,14,2.63,250
KPS6Ta,14,1.73,344
KPS5Ti,12,1.22,220
K4P2S9V,33,1.29,238
KP2S7V,5,0.07,233
KS4SiY,4,2.79,161
K2S11Sn2Y4,130,1.58,248
LaLiO12P4,15,5.21,356
La2LiO6Sb,14,3.89,434
LaNaO12P4,14,5.10,316
La2O2S3Sn,62,1.67,214
LaRbS4Si,62,2.79,146
Li2Mg2O11Si4,2,4.93,499
Li2NO2P,36,5.60,774
LiNOSi,29,5.25,808
Li2N4Si2Sr,205,3.44,788
LiNdO12P4,15,6.08,397
LiO12P4Tb,15,6.06,399
LiO12P4Y,15,6.07,416
LiO6SbW,60,2.12,407
LiO6ScSi2,15,4.92,486
LiO6ScSi2,14,4.93,469
LiO6Si2V,15,2.07,486
LiO6Si2V,14,1.88,477
LuNa5O12Si4,155,3.68,419
Mg4N12P6S,217,4.83,660
Mg2Na3O16P5,13,4.81,460
Mg2Na2O15Si6,64,4.41,463
MgO12Rb2Si5,61,4.78,357
MoNaO5Sb,14,3.42,342
N8O6P6Sr3,147,4.50,611
N4O3Si3Y2,113,2.79,679
N7Si4SrY,186,2.74,719
NaNb2PS10,15,1.65,197
NaNdO12P4,14,5.60,362
NaNdO14Si6,72,4.80,445
Na3O8PSi2,19,3.15,426
Na2O12P4Sr,125,5.33,469
Na3O23P8Ti,213,0.21,421
Na2O6PV,14,3.34,447
Na2O13P2V3,56,1.78,445
Na3O23P8V,213,2.43,423
NaO12P3V3,74,0.15,461
NaO12P4Y,14,5.59,368
NaO14PrSi6,72,4.79,448
NaO5RbSi2,14,4.44,342
Na3O4RbSn,88,2.25,325
NaO6SbSr3,167,2.92,333
NaO12Sb3Sr4,14,2.09,230
Na4O13Sc2Si4,33,4.60,443
NaO6ScSi2,15,4.95,439
Na8O18Si6Sn,166,3.80,450
Na2O9Si2Ti2,60,3.26,463
Na2O11Si4Ti,87,2.73,399
NaO6Si2V,15,2.00,462
Na3O15Si6Y,64,4.53,528
NaO6Si2Y,14,4.71,385
NaO6Si2Y,15,4.80,395
Na2O11Si4Zr,15,4.58,349
NaP2S6Sb,14,2.18,209
NaP2S6Sb,4,2.15,212
NaP2S6Sm,14,2.79,218
NaP2S6Yb,2,1.70,238
NaS7SiSm3,173,2.02,154
NaS7SiY3,173,2.20,298
NbO5RbSi,19,3.21,378
Nb2O23Rb4Si8,2,3.72,363
Nb2PRbS10,7,1.55,181
Nb2P2Rb2S11,11,1.16,128
NdO12P4Rb,15,5.30,393
NdO12P4Rb,14,5.45,368
O13P4Rb2Si,2,5.17,392
O12P4RbSm,15,5.30,461
O12P4RbTb,14,5.49,344
O12P4RbTm,14,5.47,422
O12P4RbY,14,5.48,350
O9Rb2Si3Sn,176,3.80,433
O15Rb2Si6Ti,9,3.49,424
O9Rb2Si3Ti,176,3.14,400
O6SbSmSr2,14,3.60,380
O6SbSr2Y,225,3.51,488
O6SbSr2Y,14,3.70,429
O7Si2SrTi,63,3.61,481
O10Si3SrY2,2,4.93,517
P4Pr3Rb3S16,2,2.29,246
P2Rb3S8Sm,4,2.19,266
PRbS6Ta,14,1.72,346
PRbS5Ti,12,1.19,195
P5Rb3S18Zr2,9,1.98,352